<?xml version="1.0" encoding="UTF-8"?>

<!-- generated on 01/26/20 17:14:21 by Eclipse SUMO GUI Version 1.3.1
<configuration xmlns:xsi="http://www.w3.org/2001/XMLSchema-instance" xsi:noNamespaceSchemaLocation="http://sumo.dlr.de/xsd/sumoConfiguration.xsd">

    <input>
        <net-file value="D:\Qu%20Y4S2\senior\mcssp\busConvert\simulation\shape_110.net.xml"/>
        <route-files value="D:\Qu%20Y4S2\senior\mcssp\busConvert\simulation\routes.routes.xml"/>
        <additional-files value="D:\Qu%20Y4S2\senior\mcssp\busConvert\simulation\additional.xml"/>
    </input>

    <output>
        <write-license value="true"/>
        <fcd-output value="D:\Qu%20Y4S2\senior\mcssp\busConvert\simulation\fcd.xml"/>
        <fcd-output.geo value="true"/>
    </output>

    <processing>
        <ignore-route-errors value="true"/>
        <default.speeddev value="0"/>
    </processing>

    <report>
        <duration-log.disable value="true"/>
        <no-step-log value="true"/>
    </report>

    <fcd_device>
        <device.fcd.probability value="1"/>
        <device.fcd.explicit value="110"/>
        <person-device.fcd.probability value="1"/>
    </fcd_device>

</configuration>
-->

<fcd-export xmlns:xsi="http://www.w3.org/2001/XMLSchema-instance" xsi:noNamespaceSchemaLocation="http://sumo.dlr.de/xsd/fcd_file.xsd">
    <timestep time="0.00">
        <vehicle id="110.0" x="51.540055" y="25.283668" angle="182.089068" type="BUS" speed="0.000000" pos="12.100000" lane="95475498#5_0" slope="0.000000"/>
    </timestep>
    <timestep time="1.00">
        <vehicle id="110.0" x="51.540054" y="25.283645" angle="182.089068" type="BUS" speed="2.600000" pos="14.700000" lane="95475498#5_0" slope="0.000000"/>
    </timestep>
    <timestep time="2.00">
        <vehicle id="110.0" x="51.540052" y="25.283598" angle="182.089068" type="BUS" speed="5.200000" pos="19.900000" lane="95475498#5_0" slope="0.000000"/>
    </timestep>
    <timestep time="3.00">
        <vehicle id="110.0" x="51.540049" y="25.283529" angle="182.089068" type="BUS" speed="7.800000" pos="27.700000" lane="95475498#5_0" slope="0.000000"/>
    </timestep>
    <timestep time="4.00">
        <vehicle id="110.0" x="51.540045" y="25.283436" angle="182.089068" type="BUS" speed="10.400000" pos="38.100000" lane="95475498#5_0" slope="0.000000"/>
    </timestep>
    <timestep time="5.00">
        <vehicle id="110.0" x="51.540040" y="25.283320" angle="182.089068" type="BUS" speed="13.000000" pos="51.100000" lane="95475498#5_0" slope="0.000000"/>
    </timestep>
    <timestep time="6.00">
        <vehicle id="110.0" x="51.540034" y="25.283196" angle="182.089068" type="BUS" speed="13.913000" pos="65.013000" lane="95475498#5_0" slope="0.000000"/>
    </timestep>
    <timestep time="7.00">
        <vehicle id="110.0" x="51.540031" y="25.283112" angle="182.089068" type="BUS" speed="9.413000" pos="74.426000" lane="95475498#5_0" slope="0.000000"/>
    </timestep>
    <timestep time="8.00">
        <vehicle id="110.0" x="51.540029" y="25.283068" angle="182.089068" type="BUS" speed="4.913000" pos="79.339000" lane="95475498#5_0" slope="0.000000"/>
    </timestep>
    <timestep time="9.00">
        <vehicle id="110.0" x="51.540028" y="25.283065" angle="182.089068" type="BUS" speed="0.413000" pos="79.752000" lane="95475498#5_0" slope="0.000000"/>
    </timestep>
    <timestep time="10.00">
        <vehicle id="110.0" x="51.540028" y="25.283065" angle="182.089068" type="BUS" speed="0.000000" pos="79.752000" lane="95475498#5_0" slope="0.000000"/>
        <person id="0" x="51.540041" y="25.283777" angle="182.089068" speed="0.000000" pos="0.000000" edge="95475498#5" slope="0.000000"/>
    </timestep>
    <timestep time="11.00">
        <vehicle id="110.0" x="51.540028" y="25.283065" angle="182.089068" type="BUS" speed="0.000000" pos="79.752000" lane="95475498#5_0" slope="0.000000"/>
        <person id="0" x="51.540046" y="25.283766" angle="182.089068" speed="1.141386" pos="1.141386" edge="95475498#5" slope="0.000000"/>
    </timestep>
    <timestep time="12.00">
        <vehicle id="110.0" x="51.540028" y="25.283065" angle="182.089068" type="BUS" speed="0.000000" pos="79.752000" lane="95475498#5_0" slope="0.000000"/>
        <person id="0" x="51.540047" y="25.283756" angle="182.089068" speed="1.190974" pos="2.332361" edge="95475498#5" slope="0.000000"/>
    </timestep>
    <timestep time="13.00">
        <vehicle id="110.0" x="51.540028" y="25.283065" angle="182.089068" type="BUS" speed="0.000000" pos="79.752000" lane="95475498#5_0" slope="0.000000"/>
        <person id="0" x="51.540046" y="25.283743" angle="182.089068" speed="1.376256" pos="3.708616" edge="95475498#5" slope="0.000000"/>
    </timestep>
    <timestep time="14.00">
        <vehicle id="110.0" x="51.540028" y="25.283065" angle="182.089068" type="BUS" speed="0.000000" pos="79.752000" lane="95475498#5_0" slope="0.000000"/>
        <person id="0" x="51.540045" y="25.283732" angle="182.089068" speed="1.252376" pos="4.960993" edge="95475498#5" slope="0.000000"/>
    </timestep>
    <timestep time="15.00">
        <vehicle id="110.0" x="51.540028" y="25.283065" angle="182.089068" type="BUS" speed="0.000000" pos="79.752000" lane="95475498#5_0" slope="0.000000"/>
        <person id="0" x="51.540045" y="25.283721" angle="182.089068" speed="1.225013" pos="6.186005" edge="95475498#5" slope="0.000000"/>
    </timestep>
    <timestep time="16.00">
        <vehicle id="110.0" x="51.540028" y="25.283065" angle="182.089068" type="BUS" speed="0.000000" pos="79.752000" lane="95475498#5_0" slope="0.000000"/>
        <person id="0" x="51.540044" y="25.283709" angle="182.089068" speed="1.376774" pos="7.562780" edge="95475498#5" slope="0.000000"/>
    </timestep>
    <timestep time="17.00">
        <vehicle id="110.0" x="51.540028" y="25.283065" angle="182.089068" type="BUS" speed="0.000000" pos="79.752000" lane="95475498#5_0" slope="0.000000"/>
        <person id="0" x="51.540044" y="25.283698" angle="182.089068" speed="1.182429" pos="8.745208" edge="95475498#5" slope="0.000000"/>
    </timestep>
    <timestep time="18.00">
        <vehicle id="110.0" x="51.540028" y="25.283065" angle="182.089068" type="BUS" speed="0.000000" pos="79.752000" lane="95475498#5_0" slope="0.000000"/>
        <person id="0" x="51.540043" y="25.283687" angle="182.089068" speed="1.320139" pos="10.065347" edge="95475498#5" slope="0.000000"/>
    </timestep>
    <timestep time="19.00">
        <vehicle id="110.0" x="51.540028" y="25.283065" angle="182.089068" type="BUS" speed="0.000000" pos="79.752000" lane="95475498#5_0" slope="0.000000"/>
        <person id="0" x="51.540043" y="25.283675" angle="182.089068" speed="1.237424" pos="11.302770" edge="95475498#5" slope="0.000000"/>
    </timestep>
    <timestep time="20.00">
        <vehicle id="110.0" x="51.540028" y="25.283065" angle="182.089068" type="BUS" speed="0.000000" pos="79.752000" lane="95475498#5_0" slope="0.000000"/>
        <person id="0" x="51.540042" y="25.283665" angle="182.089068" speed="1.181911" pos="12.484682" edge="95475498#5" slope="0.000000"/>
    </timestep>
    <timestep time="21.00">
        <vehicle id="110.0" x="51.540028" y="25.283065" angle="182.089068" type="BUS" speed="0.000000" pos="79.752000" lane="95475498#5_0" slope="0.000000"/>
        <person id="0" x="51.540042" y="25.283653" angle="182.089068" speed="1.387212" pos="13.871894" edge="95475498#5" slope="0.000000"/>
    </timestep>
    <timestep time="22.00">
        <vehicle id="110.0" x="51.540028" y="25.283065" angle="182.089068" type="BUS" speed="0.000000" pos="79.752000" lane="95475498#5_0" slope="0.000000"/>
        <person id="0" x="51.540041" y="25.283642" angle="182.089068" speed="1.201943" pos="15.073838" edge="95475498#5" slope="0.000000"/>
    </timestep>
    <timestep time="23.00">
        <vehicle id="110.0" x="51.540028" y="25.283065" angle="182.089068" type="BUS" speed="0.000000" pos="79.752000" lane="95475498#5_0" slope="0.000000"/>
        <person id="0" x="51.540041" y="25.283631" angle="182.089068" speed="1.259399" pos="16.333236" edge="95475498#5" slope="0.000000"/>
    </timestep>
    <timestep time="24.00">
        <vehicle id="110.0" x="51.540028" y="25.283065" angle="182.089068" type="BUS" speed="0.000000" pos="79.752000" lane="95475498#5_0" slope="0.000000"/>
        <person id="0" x="51.540040" y="25.283619" angle="182.089068" speed="1.263302" pos="17.596538" edge="95475498#5" slope="0.000000"/>
    </timestep>
    <timestep time="25.00">
        <vehicle id="110.0" x="51.540028" y="25.283065" angle="182.089068" type="BUS" speed="0.000000" pos="79.752000" lane="95475498#5_0" slope="0.000000"/>
        <person id="0" x="51.540040" y="25.283608" angle="182.089068" speed="1.231590" pos="18.828129" edge="95475498#5" slope="0.000000"/>
    </timestep>
    <timestep time="26.00">
        <vehicle id="110.0" x="51.540028" y="25.283065" angle="182.089068" type="BUS" speed="0.000000" pos="79.752000" lane="95475498#5_0" slope="0.000000"/>
        <person id="0" x="51.540039" y="25.283597" angle="182.089068" speed="1.315412" pos="20.143541" edge="95475498#5" slope="0.000000"/>
    </timestep>
    <timestep time="27.00">
        <vehicle id="110.0" x="51.540028" y="25.283065" angle="182.089068" type="BUS" speed="0.000000" pos="79.752000" lane="95475498#5_0" slope="0.000000"/>
        <person id="0" x="51.540039" y="25.283584" angle="182.089068" speed="1.372151" pos="21.515692" edge="95475498#5" slope="0.000000"/>
    </timestep>
    <timestep time="28.00">
        <vehicle id="110.0" x="51.540028" y="25.283065" angle="182.089068" type="BUS" speed="0.000000" pos="79.752000" lane="95475498#5_0" slope="0.000000"/>
        <person id="0" x="51.540038" y="25.283574" angle="182.089068" speed="1.145671" pos="22.661363" edge="95475498#5" slope="0.000000"/>
    </timestep>
    <timestep time="29.00">
        <vehicle id="110.0" x="51.540028" y="25.283065" angle="182.089068" type="BUS" speed="0.000000" pos="79.752000" lane="95475498#5_0" slope="0.000000"/>
        <person id="0" x="51.540038" y="25.283563" angle="182.089068" speed="1.299454" pos="23.960817" edge="95475498#5" slope="0.000000"/>
    </timestep>
    <timestep time="30.00">
        <vehicle id="110.0" x="51.540028" y="25.283065" angle="182.089068" type="BUS" speed="0.000000" pos="79.752000" lane="95475498#5_0" slope="0.000000"/>
        <person id="0" x="51.540037" y="25.283552" angle="182.089068" speed="1.198998" pos="25.159815" edge="95475498#5" slope="0.000000"/>
    </timestep>
    <timestep time="31.00">
        <vehicle id="110.0" x="51.540028" y="25.283065" angle="182.089068" type="BUS" speed="0.000000" pos="79.752000" lane="95475498#5_0" slope="0.000000"/>
        <person id="0" x="51.540037" y="25.283540" angle="182.089068" speed="1.376056" pos="26.535872" edge="95475498#5" slope="0.000000"/>
    </timestep>
    <timestep time="32.00">
        <vehicle id="110.0" x="51.540028" y="25.283065" angle="182.089068" type="BUS" speed="0.000000" pos="79.752000" lane="95475498#5_0" slope="0.000000"/>
        <person id="0" x="51.540036" y="25.283529" angle="182.089068" speed="1.246398" pos="27.782270" edge="95475498#5" slope="0.000000"/>
    </timestep>
    <timestep time="33.00">
        <vehicle id="110.0" x="51.540028" y="25.283065" angle="182.089068" type="BUS" speed="0.000000" pos="79.752000" lane="95475498#5_0" slope="0.000000"/>
        <person id="0" x="51.540036" y="25.283517" angle="182.089068" speed="1.303593" pos="29.085863" edge="95475498#5" slope="0.000000"/>
    </timestep>
    <timestep time="34.00">
        <vehicle id="110.0" x="51.540028" y="25.283065" angle="182.089068" type="BUS" speed="0.000000" pos="79.752000" lane="95475498#5_0" slope="0.000000"/>
        <person id="0" x="51.540035" y="25.283506" angle="182.089068" speed="1.212923" pos="30.298787" edge="95475498#5" slope="0.000000"/>
    </timestep>
    <timestep time="35.00">
        <vehicle id="110.0" x="51.540028" y="25.283065" angle="182.089068" type="BUS" speed="0.000000" pos="79.752000" lane="95475498#5_0" slope="0.000000"/>
        <person id="0" x="51.540035" y="25.283496" angle="182.089068" speed="1.128045" pos="31.426831" edge="95475498#5" slope="0.000000"/>
    </timestep>
    <timestep time="36.00">
        <vehicle id="110.0" x="51.540028" y="25.283065" angle="182.089068" type="BUS" speed="0.000000" pos="79.752000" lane="95475498#5_0" slope="0.000000"/>
        <person id="0" x="51.540034" y="25.283486" angle="182.089068" speed="1.159915" pos="32.586746" edge="95475498#5" slope="0.000000"/>
    </timestep>
    <timestep time="37.00">
        <vehicle id="110.0" x="51.540028" y="25.283065" angle="182.089068" type="BUS" speed="0.000000" pos="79.752000" lane="95475498#5_0" slope="0.000000"/>
        <person id="0" x="51.540034" y="25.283475" angle="182.089068" speed="1.142326" pos="33.729072" edge="95475498#5" slope="0.000000"/>
    </timestep>
    <timestep time="38.00">
        <vehicle id="110.0" x="51.540028" y="25.283065" angle="182.089068" type="BUS" speed="0.000000" pos="79.752000" lane="95475498#5_0" slope="0.000000"/>
        <person id="0" x="51.540034" y="25.283464" angle="182.089068" speed="1.278728" pos="35.007800" edge="95475498#5" slope="0.000000"/>
    </timestep>
    <timestep time="39.00">
        <vehicle id="110.0" x="51.540028" y="25.283065" angle="182.089068" type="BUS" speed="0.000000" pos="79.752000" lane="95475498#5_0" slope="0.000000"/>
        <person id="0" x="51.540033" y="25.283453" angle="182.089068" speed="1.237691" pos="36.245491" edge="95475498#5" slope="0.000000"/>
    </timestep>
    <timestep time="40.00">
        <vehicle id="110.0" x="51.540028" y="25.283065" angle="182.089068" type="BUS" speed="0.000000" pos="79.752000" lane="95475498#5_0" slope="0.000000"/>
        <person id="0" x="51.540033" y="25.283441" angle="182.089068" speed="1.323134" pos="37.568625" edge="95475498#5" slope="0.000000"/>
    </timestep>
    <timestep time="41.00">
        <vehicle id="110.0" x="51.540027" y="25.283041" angle="182.089068" type="BUS" speed="2.600000" pos="82.352000" lane="95475498#5_0" slope="0.000000"/>
        <person id="0" x="51.540032" y="25.283429" angle="182.089068" speed="1.379884" pos="38.948509" edge="95475498#5" slope="0.000000"/>
    </timestep>
    <timestep time="42.00">
        <vehicle id="110.0" x="51.540025" y="25.282995" angle="182.089068" type="BUS" speed="5.200000" pos="87.552000" lane="95475498#5_0" slope="0.000000"/>
        <person id="0" x="51.540031" y="25.283417" angle="182.089068" speed="1.305066" pos="40.253575" edge="95475498#5" slope="0.000000"/>
    </timestep>
    <timestep time="43.00">
        <vehicle id="110.0" x="51.540022" y="25.282925" angle="182.089068" type="BUS" speed="7.800000" pos="95.352000" lane="95475498#5_0" slope="0.000000"/>
        <person id="0" x="51.540031" y="25.283407" angle="182.089068" speed="1.176527" pos="41.430103" edge="95475498#5" slope="0.000000"/>
    </timestep>
    <timestep time="44.00">
        <vehicle id="110.0" x="51.540018" y="25.282833" angle="182.089068" type="BUS" speed="10.400000" pos="105.752000" lane="95475498#5_0" slope="0.000000"/>
        <person id="0" x="51.540030" y="25.283395" angle="182.089068" speed="1.344693" pos="42.774795" edge="95475498#5" slope="0.000000"/>
    </timestep>
    <timestep time="45.00">
        <vehicle id="110.0" x="51.540012" y="25.282717" angle="182.352887" type="BUS" speed="13.000000" pos="118.752000" lane="95475498#5_0" slope="0.000000"/>
        <person id="0" x="51.540030" y="25.283385" angle="182.089068" speed="1.123169" pos="43.897965" edge="95475498#5" slope="0.000000"/>
    </timestep>
    <timestep time="46.00">
        <vehicle id="110.0" x="51.540000" y="25.282636" angle="186.375585" type="BUS" speed="9.189000" pos="127.941000" lane="95475498#5_0" slope="0.000000"/>
        <person id="0" x="51.540029" y="25.283372" angle="182.089068" speed="1.380605" pos="45.278569" edge="95475498#5" slope="0.000000"/>
    </timestep>
    <timestep time="47.00">
        <vehicle id="110.0" x="51.539993" y="25.282594" angle="188.501648" type="BUS" speed="4.689000" pos="132.630000" lane="95475498#5_0" slope="0.000000"/>
        <person id="0" x="51.540029" y="25.283362" angle="182.089068" speed="1.198591" pos="46.477161" edge="95475498#5" slope="0.000000"/>
    </timestep>
    <timestep time="48.00">
        <vehicle id="110.0" x="51.539949" y="25.282546" angle="207.102008" type="BUS" speed="7.289000" pos="6.999000" lane=":1107043385_0_0" slope="0.000000"/>
        <person id="0" x="51.540028" y="25.283350" angle="182.089068" speed="1.296859" pos="47.774020" edge="95475498#5" slope="0.000000"/>
    </timestep>
    <timestep time="49.00">
        <vehicle id="110.0" x="51.539868" y="25.282502" angle="237.216168" type="BUS" speed="9.889000" pos="16.888000" lane=":1107043385_0_0" slope="0.000000"/>
        <person id="0" x="51.540028" y="25.283338" angle="182.089068" speed="1.352951" pos="49.126971" edge="95475498#5" slope="0.000000"/>
    </timestep>
    <timestep time="50.00">
        <vehicle id="110.0" x="51.539758" y="25.282453" angle="243.566727" type="BUS" speed="12.489000" pos="6.717000" lane="158426437#0_0" slope="0.000000"/>
        <person id="0" x="51.540027" y="25.283326" angle="182.089068" speed="1.354061" pos="50.481031" edge="95475498#5" slope="0.000000"/>
    </timestep>
    <timestep time="51.00">
        <vehicle id="110.0" x="51.539624" y="25.282390" angle="242.010542" type="BUS" speed="15.089000" pos="4.866000" lane=":1107043332_0_1" slope="0.000000"/>
        <person id="0" x="51.540027" y="25.283315" angle="182.089068" speed="1.274626" pos="51.755658" edge="95475498#5" slope="0.000000"/>
    </timestep>
    <timestep time="52.00">
        <vehicle id="110.0" x="51.539473" y="25.282329" angle="251.121472" type="BUS" speed="16.670000" pos="2.786000" lane="95475538#0_1" slope="0.000000"/>
        <person id="0" x="51.540026" y="25.283305" angle="182.089068" speed="1.120960" pos="52.876618" edge="95475498#5" slope="0.000000"/>
    </timestep>
    <timestep time="53.00">
        <vehicle id="110.0" x="51.539307" y="25.282321" angle="267.010156" type="BUS" speed="16.670000" pos="19.456000" lane="95475538#0_1" slope="0.000000"/>
        <person id="0" x="51.540026" y="25.283293" angle="182.089068" speed="1.315535" pos="54.192154" edge="95475498#5" slope="0.000000"/>
    </timestep>
    <timestep time="54.00">
        <vehicle id="110.0" x="51.539141" y="25.282327" angle="272.653435" type="BUS" speed="16.670000" pos="36.126000" lane="95475538#0_1" slope="0.000000"/>
        <person id="0" x="51.540025" y="25.283281" angle="182.089068" speed="1.326908" pos="55.519062" edge="95475498#5" slope="0.000000"/>
    </timestep>
    <timestep time="55.00">
        <vehicle id="110.0" x="51.538975" y="25.282335" angle="272.653435" type="BUS" speed="16.670000" pos="52.796000" lane="95475538#0_1" slope="0.000000"/>
        <person id="0" x="51.540025" y="25.283269" angle="182.089068" speed="1.342236" pos="56.861297" edge="95475498#5" slope="0.000000"/>
    </timestep>
    <timestep time="56.00">
        <vehicle id="110.0" x="51.538809" y="25.282343" angle="272.653435" type="BUS" speed="16.670000" pos="69.466000" lane="95475538#0_1" slope="0.000000"/>
        <person id="0" x="51.540024" y="25.283258" angle="182.089068" speed="1.230109" pos="58.091406" edge="95475498#5" slope="0.000000"/>
    </timestep>
    <timestep time="57.00">
        <vehicle id="110.0" x="51.538644" y="25.282348" angle="271.508418" type="BUS" speed="16.670000" pos="6.056000" lane=":1107043638_3_1" slope="0.000000"/>
        <person id="0" x="51.540024" y="25.283246" angle="182.089068" speed="1.321836" pos="59.413242" edge="95475498#5" slope="0.000000"/>
    </timestep>
    <timestep time="58.00">
        <vehicle id="110.0" x="51.538479" y="25.282346" angle="268.659383" type="BUS" speed="16.670000" pos="8.616000" lane="95475538#1_1" slope="0.000000"/>
        <person id="0" x="51.540023" y="25.283236" angle="182.089068" speed="1.163417" pos="60.576659" edge="95475498#5" slope="0.000000"/>
    </timestep>
    <timestep time="59.00">
        <vehicle id="110.0" x="51.538315" y="25.282342" angle="267.990446" type="BUS" speed="16.670000" pos="25.286000" lane="95475538#1_1" slope="0.000000"/>
        <person id="0" x="51.540023" y="25.283224" angle="182.089068" speed="1.364160" pos="61.940819" edge="95475498#5" slope="0.000000"/>
    </timestep>
    <timestep time="60.00">
        <vehicle id="110.0" x="51.538153" y="25.282320" angle="258.927727" type="BUS" speed="16.670000" pos="41.956000" lane="95475538#1_1" slope="0.000000"/>
        <person id="0" x="51.540022" y="25.283213" angle="182.089068" speed="1.203298" pos="63.144118" edge="95475498#5" slope="0.000000"/>
    </timestep>
    <timestep time="61.00">
        <vehicle id="110.0" x="51.537995" y="25.282279" angle="253.581900" type="BUS" speed="16.670000" pos="58.626000" lane="95475538#1_1" slope="0.000000"/>
        <person id="0" x="51.540022" y="25.283203" angle="182.089068" speed="1.190122" pos="64.334240" edge="95475498#5" slope="0.000000"/>
    </timestep>
    <timestep time="62.00">
        <vehicle id="110.0" x="51.537844" y="25.282219" angle="244.005000" type="BUS" speed="16.670000" pos="75.296000" lane="95475538#1_1" slope="0.000000"/>
        <person id="0" x="51.540021" y="25.283192" angle="182.089068" speed="1.223270" pos="65.557510" edge="95475498#5" slope="0.000000"/>
    </timestep>
    <timestep time="63.00">
        <vehicle id="110.0" x="51.537696" y="25.282154" angle="244.005000" type="BUS" speed="16.670000" pos="91.966000" lane="95475538#1_1" slope="0.000000"/>
        <person id="0" x="51.540021" y="25.283181" angle="182.089068" speed="1.196775" pos="66.754286" edge="95475498#5" slope="0.000000"/>
    </timestep>
    <timestep time="64.00">
        <vehicle id="110.0" x="51.537560" y="25.282071" angle="232.551443" type="BUS" speed="16.670000" pos="108.636000" lane="95475538#1_1" slope="0.000000"/>
        <person id="0" x="51.540020" y="25.283171" angle="182.089068" speed="1.129152" pos="67.883438" edge="95475498#5" slope="0.000000"/>
    </timestep>
    <timestep time="65.00">
        <vehicle id="110.0" x="51.537431" y="25.281978" angle="231.456236" type="BUS" speed="16.670000" pos="125.306000" lane="95475538#1_1" slope="0.000000"/>
        <person id="0" x="51.540020" y="25.283161" angle="182.089068" speed="1.122239" pos="69.005676" edge="95475498#5" slope="0.000000"/>
    </timestep>
    <timestep time="66.00">
        <vehicle id="110.0" x="51.537314" y="25.281873" angle="222.628717" type="BUS" speed="16.670000" pos="141.976000" lane="95475538#1_1" slope="0.000000"/>
        <person id="0" x="51.540020" y="25.283149" angle="182.089068" speed="1.303393" pos="70.309069" edge="95475498#5" slope="0.000000"/>
    </timestep>
    <timestep time="67.00">
        <vehicle id="110.0" x="51.537203" y="25.281763" angle="222.415725" type="BUS" speed="16.670000" pos="158.646000" lane="95475538#1_1" slope="0.000000"/>
        <person id="0" x="51.540019" y="25.283138" angle="182.089068" speed="1.252063" pos="71.561133" edge="95475498#5" slope="0.000000"/>
    </timestep>
    <timestep time="68.00">
        <vehicle id="110.0" x="51.537095" y="25.281651" angle="220.364187" type="BUS" speed="16.670000" pos="175.316000" lane="95475538#1_1" slope="0.000000"/>
        <person id="0" x="51.540019" y="25.283127" angle="182.089068" speed="1.227759" pos="72.788891" edge="95475498#5" slope="0.000000"/>
    </timestep>
    <timestep time="69.00">
        <vehicle id="110.0" x="51.536998" y="25.281529" angle="215.527343" type="BUS" speed="16.670000" pos="191.986000" lane="95475538#1_1" slope="0.000000"/>
        <person id="0" x="51.540018" y="25.283115" angle="182.089068" speed="1.342111" pos="74.131003" edge="95475498#5" slope="0.000000"/>
    </timestep>
    <timestep time="70.00">
        <vehicle id="110.0" x="51.536902" y="25.281408" angle="215.527343" type="BUS" speed="16.670000" pos="208.656000" lane="95475538#1_1" slope="0.000000"/>
        <person id="0" x="51.540018" y="25.283105" angle="182.089068" speed="1.123637" pos="75.254640" edge="95475498#5" slope="0.000000"/>
    </timestep>
    <timestep time="71.00">
        <vehicle id="110.0" x="51.536806" y="25.281286" angle="215.527343" type="BUS" speed="16.670000" pos="225.326000" lane="95475538#1_1" slope="0.000000"/>
        <person id="0" x="51.540017" y="25.283093" angle="182.089068" speed="1.337956" pos="76.592597" edge="95475498#5" slope="0.000000"/>
    </timestep>
    <timestep time="72.00">
        <vehicle id="110.0" x="51.536710" y="25.281165" angle="215.527343" type="BUS" speed="16.670000" pos="241.996000" lane="95475538#1_1" slope="0.000000"/>
        <person id="0" x="51.540017" y="25.283082" angle="182.089068" speed="1.210656" pos="77.803252" edge="95475498#5" slope="0.000000"/>
    </timestep>
    <timestep time="73.00">
        <vehicle id="110.0" x="51.536613" y="25.281043" angle="215.527343" type="BUS" speed="16.670000" pos="258.666000" lane="95475538#1_1" slope="0.000000"/>
        <person id="0" x="51.540016" y="25.283070" angle="182.089068" speed="1.346713" pos="79.149966" edge="95475498#5" slope="0.000000"/>
    </timestep>
    <timestep time="74.00">
        <vehicle id="110.0" x="51.536512" y="25.280923" angle="217.745817" type="BUS" speed="16.670000" pos="12.856000" lane=":730793451_1_1" slope="0.000000"/>
        <person id="0" x="51.540015" y="25.283058" angle="182.089068" speed="1.381156" pos="80.531122" edge="95475498#5" slope="0.000000"/>
    </timestep>
    <timestep time="75.00">
        <vehicle id="110.0" x="51.536406" y="25.280808" angle="220.080409" type="BUS" speed="16.670000" pos="14.876000" lane="95475538#2_1" slope="0.000000"/>
        <person id="0" x="51.540015" y="25.283046" angle="182.089068" speed="1.311433" pos="81.842554" edge="95475498#5" slope="0.000000"/>
    </timestep>
    <timestep time="76.00">
        <vehicle id="110.0" x="51.536298" y="25.280693" angle="220.080409" type="BUS" speed="16.670000" pos="31.546000" lane="95475538#2_1" slope="0.000000"/>
        <person id="0" x="51.540014" y="25.283035" angle="182.089068" speed="1.237009" pos="83.079563" edge="95475498#5" slope="0.000000"/>
    </timestep>
    <timestep time="77.00">
        <vehicle id="110.0" x="51.536191" y="25.280578" angle="220.080409" type="BUS" speed="16.670000" pos="48.216000" lane="95475538#2_1" slope="0.000000"/>
        <person id="0" x="51.540014" y="25.283025" angle="182.089068" speed="1.131081" pos="84.210644" edge="95475498#5" slope="0.000000"/>
    </timestep>
    <timestep time="78.00">
        <vehicle id="110.0" x="51.536098" y="25.280455" angle="212.187945" type="BUS" speed="16.670000" pos="4.046000" lane="154054008#0_1" slope="0.000000"/>
        <person id="0" x="51.540013" y="25.283013" angle="182.089068" speed="1.370285" pos="85.580930" edge="95475498#5" slope="0.000000"/>
    </timestep>
    <timestep time="79.00">
        <vehicle id="110.0" x="51.536011" y="25.280326" angle="213.386735" type="BUS" speed="16.670000" pos="20.716000" lane="154054008#0_1" slope="0.000000"/>
        <person id="0" x="51.540013" y="25.283001" angle="182.089068" speed="1.339173" pos="86.920102" edge="95475498#5" slope="0.000000"/>
    </timestep>
    <timestep time="80.00">
        <vehicle id="110.0" x="51.535902" y="25.280210" angle="222.884825" type="BUS" speed="16.670000" pos="37.386000" lane="154054008#0_1" slope="0.000000"/>
        <person id="0" x="51.540012" y="25.282991" angle="182.089068" speed="1.113258" pos="88.033361" edge="95475498#5" slope="0.000000"/>
    </timestep>
    <timestep time="81.00">
        <vehicle id="110.0" x="51.535776" y="25.280112" angle="231.791354" type="BUS" speed="16.670000" pos="54.056000" lane="154054008#0_1" slope="0.000000"/>
        <person id="0" x="51.540012" y="25.282980" angle="182.089068" speed="1.301705" pos="89.335066" edge="95475498#5" slope="0.000000"/>
    </timestep>
    <timestep time="82.00">
        <vehicle id="110.0" x="51.535666" y="25.280047" angle="236.506432" type="BUS" speed="13.057667" pos="67.113667" lane="154054008#0_1" slope="0.000000"/>
        <person id="0" x="51.540011" y="25.282968" angle="182.089068" speed="1.294718" pos="90.629785" edge="95475498#5" slope="0.000000"/>
    </timestep>
    <timestep time="83.00">
        <vehicle id="110.0" x="51.535594" y="25.280004" angle="236.506432" type="BUS" speed="8.557667" pos="75.671333" lane="154054008#0_1" slope="0.000000"/>
        <person id="0" x="51.540011" y="25.282956" angle="182.089068" speed="1.364995" pos="91.994780" edge="95475498#5" slope="0.000000"/>
    </timestep>
    <timestep time="84.00">
        <vehicle id="110.0" x="51.535560" y="25.279984" angle="236.506432" type="BUS" speed="4.057667" pos="79.729000" lane="154054008#0_1" slope="0.000000"/>
        <person id="0" x="51.540010" y="25.282945" angle="182.089068" speed="1.231348" pos="93.226128" edge="95475498#5" slope="0.000000"/>
    </timestep>
    <timestep time="85.00">
        <vehicle id="110.0" x="51.535560" y="25.279984" angle="236.506432" type="BUS" speed="0.000000" pos="79.729000" lane="154054008#0_1" slope="0.000000"/>
        <person id="0" x="51.540010" y="25.282933" angle="182.089068" speed="1.331342" pos="94.557469" edge="95475498#5" slope="0.000000"/>
    </timestep>
    <timestep time="86.00">
        <vehicle id="110.0" x="51.535560" y="25.279984" angle="236.506432" type="BUS" speed="0.000000" pos="79.729000" lane="154054008#0_1" slope="0.000000"/>
        <person id="0" x="51.540009" y="25.282921" angle="182.089068" speed="1.338705" pos="95.896174" edge="95475498#5" slope="0.000000"/>
    </timestep>
    <timestep time="87.00">
        <vehicle id="110.0" x="51.535560" y="25.279984" angle="236.506432" type="BUS" speed="0.000000" pos="79.729000" lane="154054008#0_1" slope="0.000000"/>