<fcd-export>
    <timestep time="0.0">
    </timestep>
    <timestep time="1.0">
    </timestep>
    <timestep time="2.0">
    </timestep>
    <timestep time="3.0">
    </timestep>
    <timestep time="4.0">
    </timestep>
    <timestep time="5.0">
    </timestep>
    <timestep time="6.0">
    </timestep>
    <timestep time="7.0">
    </timestep>
    <timestep time="8.0">
    </timestep>
    <timestep time="9.0">
    </timestep>
    <timestep time="10.0">
    </timestep>
    <timestep time="11.0">
    </timestep>
    <timestep time="12.0">
    </timestep>
    <timestep time="13.0">
    </timestep>
    <timestep time="14.0">
    </timestep>
    <timestep time="15.0">
    </timestep>
    <timestep time="16.0">
    </timestep>
    <timestep time="17.0">
    </timestep>
    <timestep time="18.0">
    </timestep>
    <timestep time="19.0">
    </timestep>
    <timestep time="20.0">
    </timestep>
    <timestep time="21.0">
    </timestep>
    <timestep time="22.0">
    </timestep>
    <timestep time="23.0">
    </timestep>
    <timestep time="24.0">
    </timestep>
    <timestep time="25.0">
    </timestep>
    <timestep time="26.0">
    </timestep>
    <timestep time="27.0">
    </timestep>
    <timestep time="28.0">
    </timestep>
    <timestep time="29.0">
    </timestep>
    <timestep time="30.0">
    </timestep>
    <timestep time="31.0">
    </timestep>
    <timestep time="32.0">
    </timestep>
    <timestep time="33.0">
    </timestep>
    <timestep time="34.0">
    </timestep>
    <timestep time="35.0">
    </timestep>
    <timestep time="36.0">
    </timestep>
    <timestep time="37.0">
    </timestep>
    <timestep time="38.0">
    </timestep>
    <timestep time="39.0">
    </timestep>
    <timestep time="40.0">
    </timestep>
    <timestep time="41.0">
    </timestep>
    <timestep time="42.0">
    </timestep>
    <timestep time="43.0">
    </timestep>
    <timestep time="44.0">
    </timestep>
    <timestep time="45.0">
    </timestep>
    <timestep time="46.0">
    </timestep>
    <timestep time="47.0">
    </timestep>
    <timestep time="48.0">
    </timestep>
    <timestep time="49.0">
    </timestep>
    <timestep time="50.0">
    </timestep>
    <timestep time="51.0">
    </timestep>
    <timestep time="52.0">
    </timestep>
    <timestep time="53.0">
    </timestep>
    <timestep time="54.0">
    </timestep>
    <timestep time="55.0">
    </timestep>
    <timestep time="56.0">
    </timestep>
    <timestep time="57.0">
    </timestep>
    <timestep time="58.0">
    </timestep>
    <timestep time="59.0">
    </timestep>
    <timestep time="60.0">
    </timestep>
    <timestep time="61.0">
    </timestep>
    <timestep time="62.0">
    </timestep>
    <timestep time="63.0">
    </timestep>
    <timestep time="64.0">
    </timestep>
    <timestep time="65.0">
    </timestep>
    <timestep time="66.0">
    </timestep>
    <timestep time="67.0">
    </timestep>
    <timestep time="68.0">
    </timestep>
    <timestep time="69.0">
    </timestep>
    <timestep time="70.0">
    </timestep>
    <timestep time="71.0">
    </timestep>
    <timestep time="72.0">
    </timestep>
    <timestep time="73.0">
    </timestep>
    <timestep time="74.0">
    </timestep>
    <timestep time="75.0">
    </timestep>
    <timestep time="76.0">
    </timestep>
    <timestep time="77.0">
    </timestep>
    <timestep time="78.0">
    </timestep>
    <timestep time="79.0">
    </timestep>
    <timestep time="80.0">
    </timestep>
    <timestep time="81.0">
    </timestep>
    <timestep time="82.0">
    </timestep>
    <timestep time="83.0">
    </timestep>
    <timestep time="84.0">
    </timestep>
    <timestep time="85.0">
    </timestep>
    <timestep time="86.0">
    </timestep>
    <timestep time="87.0">
    </timestep>
    <timestep time="88.0">
    </timestep>
    <timestep time="89.0">
    </timestep>
    <timestep time="90.0">
    </timestep>
    <timestep time="91.0">
    </timestep>
    <timestep time="92.0">
    </timestep>
    <timestep time="93.0">
    </timestep>
    <timestep time="94.0">
    </timestep>
    <timestep time="95.0">
    </timestep>
    <timestep time="96.0">
    </timestep>
    <timestep time="97.0">
    </timestep>
    <timestep time="98.0">
    </timestep>
    <timestep time="99.0">
    </timestep>
    <timestep time="100.0">
    </timestep>
    <timestep time="101.0">
    </timestep>
    <timestep time="102.0">
    </timestep>
    <timestep time="103.0">
    </timestep>
    <timestep time="104.0">
    </timestep>
    <timestep time="105.0">
    </timestep>
    <timestep time="106.0">
    </timestep>
    <timestep time="107.0">
    </timestep>
    <timestep time="108.0">
    </timestep>
    <timestep time="109.0">
    </timestep>
    <timestep time="110.0">
    </timestep>
    <timestep time="111.0">
    </timestep>
    <timestep time="112.0">
    </timestep>
    <timestep time="113.0">
    </timestep>
    <timestep time="114.0">
    </timestep>
    <timestep time="115.0">
    </timestep>
    <timestep time="116.0">
    </timestep>
    <timestep time="117.0">
    </timestep>
    <timestep time="118.0">
    </timestep>
    <timestep time="119.0">
    </timestep>
    <timestep time="120.0">
    </timestep>
    <timestep time="121.0">
    </timestep>
    <timestep time="122.0">
    </timestep>
    <timestep time="123.0">
    </timestep>
    <timestep time="124.0">
    </timestep>
    <timestep time="125.0">
    </timestep>
    <timestep time="126.0">
    </timestep>
    <timestep time="127.0">
    </timestep>
    <timestep time="128.0">
    </timestep>
    <timestep time="129.0">
    </timestep>
    <timestep time="130.0">
    </timestep>
    <timestep time="131.0">
    </timestep>
    <timestep time="132.0">
    </timestep>
    <timestep time="133.0">
    </timestep>
    <timestep time="134.0">
    </timestep>
    <timestep time="135.0">
    </timestep>
    <timestep time="136.0">
    </timestep>
    <timestep time="137.0">
    </timestep>
    <timestep time="138.0">
    </timestep>
    <timestep time="139.0">
    </timestep>
    <timestep time="140.0">
    </timestep>
    <timestep time="141.0">
    </timestep>
    <timestep time="142.0">
    </timestep>
    <timestep time="143.0">
    </timestep>
    <timestep time="144.0">
    </timestep>
    <timestep time="145.0">
    </timestep>
    <timestep time="146.0">
    </timestep>
    <timestep time="147.0">
    </timestep>
    <timestep time="148.0">
    </timestep>
    <timestep time="149.0">
    </timestep>
    <timestep time="150.0">
    </timestep>
    <timestep time="151.0">
    </timestep>
    <timestep time="152.0">
    </timestep>
    <timestep time="153.0">
    </timestep>
    <timestep time="154.0">
    </timestep>
    <timestep time="155.0">
    </timestep>
    <timestep time="156.0">
    </timestep>
    <timestep time="157.0">
    </timestep>
    <timestep time="158.0">
    </timestep>
    <timestep time="159.0">
    </timestep>
    <timestep time="160.0">
    </timestep>
    <timestep time="161.0">
    </timestep>
    <timestep time="162.0">
    </timestep>
    <timestep time="163.0">
    </timestep>
    <timestep time="164.0">
    </timestep>
    <timestep time="165.0">
    </timestep>
    <timestep time="166.0">
    </timestep>
    <timestep time="167.0">
    </timestep>
    <timestep time="168.0">
    </timestep>
    <timestep time="169.0">
    </timestep>
    <timestep time="170.0">
    </timestep>
    <timestep time="171.0">
    </timestep>
    <timestep time="172.0">
    </timestep>
    <timestep time="173.0">
    </timestep>
    <timestep time="174.0">
    </timestep>
    <timestep time="175.0">
    </timestep>
    <timestep time="176.0">
    </timestep>
    <timestep time="177.0">
    </timestep>
    <timestep time="178.0">
    </timestep>
    <timestep time="179.0">
    </timestep>
    <timestep time="180.0">
    </timestep>
    <timestep time="181.0">
    </timestep>
    <timestep time="182.0">
    </timestep>
    <timestep time="183.0">
    </timestep>
    <timestep time="184.0">
    </timestep>
    <timestep time="185.0">
    </timestep>
    <timestep time="186.0">
    </timestep>
    <timestep time="187.0">
    </timestep>
    <timestep time="188.0">
    </timestep>
    <timestep time="189.0">
    </timestep>
    <timestep time="190.0">
    </timestep>
    <timestep time="191.0">
    </timestep>
    <timestep time="192.0">
    </timestep>
    <timestep time="193.0">
    </timestep>
    <timestep time="194.0">
    </timestep>
    <timestep time="195.0">
    </timestep>
    <timestep time="196.0">
    </timestep>
    <timestep time="197.0">
    </timestep>
    <timestep time="198.0">
    </timestep>
    <timestep time="199.0">
    </timestep>
</fcd-export>
