<?xml version="1.0" encoding="UTF-8"?>

<!-- generated on Wed Oct  2 19:58:48 2019 by Eclipse SUMO Version v1_3_1+0145-0c9e70a9b5
<configuration xmlns:xsi="http://www.w3.org/2001/XMLSchema-instance" xsi:noNamespaceSchemaLocation="http://sumo.dlr.de/xsd/sumoConfiguration.xsd">

    <input>
        <net-file value="qatar.net.xml"/>
        <route-files value="trips.trips.xml"/>
        <additional-files value="additional.xml"/>
    </input>

    <output>
        <vehroute-output value="vehroutes.xml"/>
        <stop-output value="stopinfos.xml"/>
    </output>

    <time>
        <begin value="0"/>
    </time>

    <processing>
        <ignore-route-errors value="true"/>
    </processing>

    <routing>
        <device.rerouting.adaptation-interval value="0"/>
    </routing>

    <report>
        <error-log value="trips.trips.xml.errorlog"/>
        <no-step-log value="true"/>
    </report>

</configuration>
-->

<routes xmlns:xsi="http://www.w3.org/2001/XMLSchema-instance" xsi:noNamespaceSchemaLocation="http://sumo.dlr.de/xsd/routes_file.xsd">
    <vehicle id="0_bus_Red:0" type="bus" depart="15.00" departLane="0" arrival="761.00">
        <route edges="142038989#0 142038989#1 142038989#2 622455361 489626257#5 489626257#6 489626257#7 489626257#8 489626257#9 489626257#10 244282405#0 137316344 224001581#0 224001581#1 224001581#2 224001581#3 -224001581#3 224001581#3 224001581#4 224001581#5 224001582#1 490720575#0 490720575#1 490720575#2 490720575#3 490720575#4 156809129#0 156809129#1 156809129#2 156809129#3 156809129#4 156809129#5 156809129#6 156809129#7 156809129#8 156809129#9 156809129#10 156809129#11 156809129#12 156809129#13 484364509#0 484364509#1 479752231 165440078 490160964#0 490160964#1 490160964#2 165440065 490160968 490160965 12690405#0 479615881 165440057 489849475#0 489849475#1 489849475#2 489849475#3 489849475#4 489849475#5 489849475#6 489849475#7 145127842#0 145127842#1 490191363 490191358 304089468#0 304089468#1 304089468#2 304089468#3 621573614 479752234 145740872#0 145740872#1 145740872#2 145740872#3 145740872#4 145740872#5 145740872#6 145740872#7 145740872#8 145740872#9 149935505#0 149935505#1 149935505#2 490552144#0 490552144#1 228664602#0 228664602#1"/>
        <stop busStop="1" duration="30.00"/>
        <stop busStop="3" duration="30.00"/>
        <stop busStop="11" duration="30.00"/>
        <stop busStop="12" duration="30.00"/>
        <stop busStop="13" duration="30.00"/>
        <stop busStop="14" duration="30.00"/>
    </vehicle>

    <vehicle id="1_bus_Green:0" type="bus" depart="165.00" departLane="0" arrival="1040.00">
        <route edges="490609584#0 490609584#1 490609584#2 490609584#3 490609584#4 490609584#5 490609585#0 490585719#2 490609586#1 490609587#0 490609587#1 490609587#2 490609587#3 490609587#4 25931503#1 25931503#2 25931503#3 480267437#0 490606533#1 490606533#2 490606533#3 490606533#4 490606533#5 490606533#6 490606533#7 -235436716#1 -235436716#0 235455096#5 235455096#6 -235455096#6 -235455096#5 235436716#0 235454335#0 235454335#1 235454335#2 235454335#3 235454335#4 235454335#5 235454335#6 235454335#7 490361710#13 490361710#14 490361710#15 490361710#16 490361710#17 25931503#5 25931503#6 25931503#7 490609584#0 490609584#1 490609584#2 490609584#3 490609584#4 490585720 235453757#2 -246333043#11 -246333043#10 246333043#10 246333043#11 490585719#0 490585719#1 490585719#2 490609586#1 490609587#0 490609587#1 490609587#2 490609587#3 490609587#4 25931503#1 25931841#0 25931841#1 25931841#2 25931841#3 25931841#4 489612081#1 25931843#1 25931843#2 25931843#3 255425303#0 255425303#1 -235436716#5"/>
        <stop busStop="5376" duration="30.00"/>
        <stop busStop="5377" duration="30.00"/>
        <stop busStop="5379" duration="30.00"/>
        <stop busStop="5380" duration="30.00"/>
        <stop busStop="5381" duration="30.00"/>
        <stop busStop="5382" duration="30.00"/>
    </vehicle>

    <vehicle id="2_bus_Blue:0" type="bus" depart="383.00" departLane="0" arrival="1323.00">
        <route edges="490722185#0 490722185#1 490722185#2 490722185#3 489670458#1 10571842#1 10571842#2 10571842#3 10571842#4 95741920 95742005#0 95742005#1 95742005#2 95742005#3 95742005#4 95742005#5 95742005#6 95742005#7 95742005#8 95742005#9 623956400#1 623956400#2 623956400#3 10571845#1 10571845#2 10571845#3 10571845#4 95741900 95741941#0 95741941#1 490722185#0 490722185#1 490722185#2 224001880#0 224001880#1 489669124 244666287#1 95601602#0 95601602#1 244666289#0 244666289#1 244666289#2 244666289#3 244666289#4 244666289#5 244666289#6 244666289#7 244666289#8 244666289#9 95741945#3 95741945#4 694985028 694985027 694985026 694985025 694985029 694985030#0 694985030#1 95601603#5 95601603#6 95601603#0 95601603#1 107337222#0 107337222#1 95601594 623589693#1 492650240 623589692 95601628 623589691#0 623589691#1 492650242#0 492650242#1 623589694 95601625#0 95601625#1 95601625#2 138715668 95601603#3 95601603#4 95601603#5 107458374#0 107458374#1 107458374#2 107458374#3 107458374#4 107458374#5 107458374#6 490765922#0 490765922#1 110020888 489670472#1 489670472#2 489670472#3 489670472#4 244666289#0 244666289#1 244666289#2 244666289#3 244666289#4 244666289#5 244666289#6 244666289#7 244666289#8 244666289#9 244666289#10 244666289#11 95601636#0 95601636#1 95475528#2 95475482#0 95475482#1 95475482#2 95475482#3 95475482#4 95741910 111614732#1 111614732#2 111614732#3"/>
        <stop busStop="1063" duration="30.00"/>
        <stop busStop="1067" duration="30.00"/>
        <stop busStop="1116" duration="30.00"/>
        <stop busStop="1120" duration="30.00"/>
        <stop busStop="1208" duration="30.00"/>
        <stop busStop="1212" duration="30.00"/>
    </vehicle>

</routes>
